   This run of MOLCAS is using the pymolcas driver

                             OPE
                             OPE          NMOL  CASOP  ENMOLC A   SO
                 OPE        NMOLC        AS  OP EN  MO LC     AS  OP
                OPENM       OL CA        SO  PE NM  OL CA     SOP EN
                OP EN      MO   LC       AS  OP ENMOL  CASO   PENMOL
                OP  EN     MO   LC       AS  OP EN     MO     LC ASO
               OP   E  NMOL  C  AS       OP  EN MO     LC     AS  OP
               OP  E   NMO   LC AS        OPEN  MO     LCASOP EN   M
               O  PEN   MO  LCA  SO
            OPE   NMO   L   CAS    OP
        OPENMOL  CASOP     ENMOL   CASOPE
     OPENMOLCA   SOPENMOLCASOPEN   MOLCASOPE
    OPENMOLCAS   OP           EN   MOL    CAS
    OPENMOLCAS       OP  ENM        O     LCA
    OPENMOLCAS    OPEN  MOLCASO     P  E  NMO
    OPENMOLCAS     OP               E  N  MOL
    OPENMOLCA   SO           PENM   O  L  CAS    OPEN    MO    LCAS
    OPENMOLCA   SOP           ENM   O  L  CAS   OP  EN  MOLC  AS   O
    OPENMOLCA   SOPE           NM      O  LCA   S      OP  EN MO
    OPENMOLC                AS         O  PEN   M      OL  CA  SOPE
    OPENMO        LCASOPE  NMOL        C  ASO   P      ENMOLC     AS
    OPE     NMO      LCA  SO     P     E   NM   OL  CA SO  PE N   MO
          OPENMOLCA            SOPE   NMO        LCAS  O    P  ENMO
     OPENMOLCASOPENMOLCASOPENMOLCASOPENMOLCA
        OPENMOLCASOPENMOLCASOPENMOLCASOPE
            OPENMOLCASOPENMOLCASOPENM
               OPENMOLCASOPENMOLCA        version: 22.06
                   OPENMOLCASO
                       OPE                tag: 110-gf028b1278

 OpenMolcas is free software; you can redistribute it and/or modify it
 under the terms of the GNU Lesser General Public License version 2.1.
 OpenMolcas is distributed in the hope that it will be useful, but it
 is provided "as is" and without any express or implied warranties.
 For more details see the full text of the license in the file
 LICENSE or in <http://www.gnu.org/licenses/>.

                 Copyright (C) The OpenMolcas Authors
           For the author list and the recommended citation,
                   consult the file CONTRIBUTORS.md

           *************************************************
           * pymolcas version py2.23                       *
           *   build d53e6f8e18683222a6e02cb84ce98eb3      *
           *   (after the EMIL interpreter by V. Veryazov) *
           *************************************************

configuration info
------------------
Host name: Arpits-MacBook-Air.local (macOS)
C Compiler ID: AppleClang
C flags: -std=gnu99
Fortran Compiler ID: GNU
Fortran flags: -fno-aggressive-loop-optimizations -cpp -fdefault-integer-8 -fmax-stack-var-size=1048576
Definitions: _MOLCAS_;_I8_;_LINUX_;_DARWIN_;_DARWIN_C_SOURCE
Parallel: OFF (GA=OFF)


   -------------------------------------------------------------------------
  |
  |           Project: li22
  |    Submitted from: /Users/arpitarunkumaar/Desktop/untitled folder
  |      Scratch area: /var/folders/c3/rhj39hv90vx5ff1jpz11zd8m0000gn/T/li22
  |   Save outputs to: /Users/arpitarunkumaar/Desktop/untitled folder
  |            Molcas: /Users/arpitarunkumaar/build
  |
  | Scratch area is NOT empty
  |
  |    MOLCAS_DRIVER = /Users/arpitarunkumaar/build/pymolcas
  |    MOLCAS_NPROCS = 1
  |    MOLCAS_SOURCE = /Users/arpitarunkumaar/OpenMolcas
  | MOLCAS_STRUCTURE = 0
  |
   -------------------------------------------------------------------------

++ ---------   Input file   ---------

&VIBROT
RoVibrational spectrum
NOSPectroscopic
Title = Vib-Rot spectrum for Li2(c)
Atoms = 6 Li  6 Li
Potential
   2.0786986470222475       0.71205435960025087
   2.2676712512969970       0.41385998362856702
   2.4566438555717469       0.26148121385173062
   2.6456164598464964       0.17463295342304730
   2.8345890641212463       0.12028690171280729
   3.0235616683959963        8.3460229143215298E-002
   3.2125342726707458        5.6836137127226759E-002
   3.4015068769454957        3.6638959903968329E-002
   3.5904794812202452        2.0828620684037954E-002
   3.7794520854949951        8.2448994336368799E-003
   3.9684246897697451       -1.8208159856496163E-003
   4.1573972940444950       -9.8444070372710902E-003
   4.3463698983192440       -1.6179227181346238E-002
   4.5353425025939940       -2.1109025703623628E-002
   4.7243151068687439       -2.4871714016769693E-002
   4.9132877111434938       -2.7669570825406838E-002
   5.1022603154182438       -2.9674119546664907E-002
   5.2912329196929928       -3.1029529866264286E-002
   5.4802055239677427       -3.1855943461669672E-002
   5.6691781282424927       -3.2252930917821374E-002
   5.8581507325172426       -3.2302857507938078E-002
   6.0471233367919925       -3.2073904514918705E-002
   6.2360959410667416       -3.1622612519485283E-002
   6.4250685453414915       -3.0995941018640488E-002
   6.6140411496162415       -3.0232915964437914E-002
   6.8030137538909914       -2.9365958907436221E-002
   6.9919863581657413       -2.8421978688919641E-002
   7.1809589624404904       -2.7423282001956210E-002
   7.3699315667152403       -2.6388337517480241E-002
   7.5589041709899902       -2.5332415062545376E-002
   7.7478767752647393       -2.4268115719394669E-002
   7.9368493795394901       -2.3205807487365920E-002
   8.1258219838142391       -2.2153981307444039E-002
   8.3147945880889900       -2.1119541996915080E-002
   8.5037671923637390       -2.0108047392323792E-002
   8.6927397966384881       -1.9123906938924882E-002
   8.8817124009132389       -1.8170548583160348E-002
   9.0706850051879879       -1.7250560586117118E-002
   9.2596576094627387       -1.6365813066393984E-002
   9.4486302137374878       -1.5517562786529722E-002
   9.6376028180122368       -1.4706543857680535E-002
   9.8265754222869877       -1.3933046521138326E-002
   10.015548026561737       -1.3196985834271018E-002
   10.204520630836488       -1.2497961836533889E-002
   10.393493235111237       -1.1835312537258273E-002
   10.582465839385986       -1.1208160830063253E-002
   10.771438443660736       -1.0615456203778141E-002
   10.960411047935485       -1.0056011903019092E-002
   11.149383652210236       -9.5285380090641952E-003
   11.338356256484985       -9.0316707734340688E-003
   11.527328860759734       -8.5639984445564608E-003
   11.716301465034485       -8.1240837774375716E-003
   11.905274069309234       -7.7104833983389284E-003
   12.094246673583985       -7.3217642006775220E-003
   12.283219277858734       -6.9565169646151242E-003
   12.472191882133483       -6.6133674129458878E-003
   12.661164486408234       -6.2909849339817855E-003
   12.850137090682983       -5.9880892146152304E-003
   13.039109694957734       -5.7034550319320062E-003
   13.228082299232483       -5.4359154495459954E-003
   13.417054903507232       -5.1843636559432806E-003
   13.606027507781983       -4.9477536679142231E-003
   13.795000112056732       -4.7251001041314026E-003
   13.983972716331483       -4.5154772135162875E-003
   14.172945320606232       -4.3180173215981556E-003
   14.361917924880981       -4.1319088365921993E-003
   14.550890529155732       -3.9563939362725498E-003
   14.739863133430481       -3.7907660374021778E-003
   14.928835737705231       -3.6343671318891180E-003
   15.117808341979980       -3.4865850581289304E-003
   15.306780946254730       -3.3468507622218297E-003
   15.495753550529479       -3.2146355918754735E-003
   15.684726154804231       -3.0894486557044585E-003
   15.873698759078980       -2.9708342721749778E-003
   16.062671363353729       -2.8583695254383785E-003
   16.251643967628478       -2.7516619395835861E-003
   16.440616571903227       -2.6503472782347282E-003
   16.629589176177980       -2.5540874727740014E-003
   16.818561780452729       -2.4625686796197286E-003
   17.007534384727478       -2.3754994648152138E-003
   17.196506989002227       -2.2926091125577402E-003
   17.385479593276976       -2.2136460531226960E-003
   17.574452197551729       -2.1383764048271167E-003
   17.763424801826478       -2.0665826241560185E-003
   17.952397406101227       -1.9980622578815725E-003
   18.141370010375976       -1.9326267908917371E-003
   18.330342614650725       -1.8701005834627174E-003
   18.519315218925477       -1.8103198918337120E-003
   18.708287823200227       -1.7531319661364770E-003
   18.897260427474976       -1.6983942199791842E-003
   19.086233031749725       -1.6459734662662695E-003
   19.275205636024474       -1.5957452141370080E-003
   19.464178240299226       -1.5475930222177935E-003
   19.653150844573975       -1.5014079036971258E-003
   19.842123448848724       -1.4570877790407299E-003
   20.031096053123473       -1.4145369724675389E-003
   20.220068657398222       -1.3736657485942355E-003
   20.409041261672975       -1.3343898859333935E-003
   20.598013865947724       -1.2966302841909247E-003
   20.786986470222473       -1.2603126025516576E-003
   20.975959074497222       -1.2253669263737172E-003
   21.164931678771971       -1.1917274599228121E-003
   21.353904283046724       -1.1593322429764353E-003
   21.542876887321473       -1.1281228893111378E-003
   21.731849491596222       -1.0980443452535339E-003
   21.920822095870971       -1.0690446666313384E-003
   22.109794700145720       -1.0410748126036650E-003
   22.298767304420473       -1.0140884549794922E-003
   22.487739908695222       -9.8804180175381096E-004
   22.676712512969971       -9.6289343369958280E-004
   22.865685117244720       -9.3860415295461761E-004
   23.054657721519469       -9.1513684263327814E-004
   23.243630325794221       -8.9245633657593804E-004
   23.432602930068970       -8.7052929842662682E-004
   23.621575534343719       -8.4932410929681350E-004
   23.810548138618469       -8.2881076333821374E-004
   23.999520742893218       -8.0896077060377562E-004
   24.188493347167970       -7.8974706663021365E-004
   24.377465951442719       -7.7114392822094321E-004
   24.566438555717468       -7.5312689495464133E-004
   24.755411159992217       -7.3567269598239079E-004
   24.944383764266966       -7.1875918171377263E-004
   25.133356368541719       -7.0236526002434596E-004
   25.322328972816468       -6.8647083664894327E-004
   25.511301577091217       -6.7105675944985333E-004
   25.700274181365966       -6.5610476627749373E-004
   25.889246785640715       -6.4159743616103485E-004
   26.078219389915468       -6.2751814358954019E-004
   26.267191994190217       -6.1385101566195795E-004
   26.456164598464966       -6.0058089190275128E-004
   26.645137202739715       -5.8769328655553562E-004
   26.834109807014464       -5.7517435318112944E-004
   27.023082411289217       -5.6301085140127410E-004
   27.212055015563966       -5.5119011564035191E-004
   27.401027619838715       -5.3970002572836708E-004
   27.590000224113464       -5.2852897924102974E-004
   27.778972828388213       -5.1766586545866008E-004
   27.967945432662965       -5.0710004083797842E-004
   28.156918036937714       -4.9682130589603934E-004
   28.345890641212463       -4.8681988341463836E-004
   28.534863245487212       -4.7708639787898371E-004
   28.723835849761961       -4.6761185607212800E-004
   28.912808454036714       -4.5838762875025405E-004
   29.101781058311463       -4.4940543333169463E-004
   29.290753662586212       -4.4065731753504677E-004
   29.479726266860961       -4.3213564390782555E-004
   29.668698871135710       -4.2383307519047221E-004
   29.857671475410463       -4.1574256046447109E-004
   30.046644079685212       -4.0785732203701155E-004
   30.235616683959961       -4.0017084301760281E-004
   30.424589288234714       -3.9267685554531440E-004
   30.613561892509459       -3.8536932962791534E-004
   30.802534496784212       -3.7824246255685522E-004
   30.991507101058957       -3.7129066886436415E-004
   31.180479705333710       -3.6450857079117061E-004
   31.369452309608462       -3.5789098923541508E-004
   31.558424913883208       -3.5143293515520045E-004
   31.747397518157960       -3.4512960139898786E-004
   31.936370122432706       -3.3897635493971499E-004
   32.125342726707458       -3.3296872949005647E-004
   32.314315330982211       -3.2710241847753969E-004
   32.503287935256957       -3.2137326835975354E-004
   32.692260539531709       -3.1577727226093455E-004
   32.881233143806455       -3.1031056391243314E-004
   33.070205748081207       -3.0496941188064752E-004
   33.259178352355960       -2.9975021406701270E-004
   33.448150956630705       -2.9464949246543536E-004
   33.637123560905458       -2.8966388816366187E-004
   33.826096165180203       -2.8479015657562003E-004
   34.015068769454956       -2.8002516289275223E-004
   34.204041373729709       -2.7536587774291277E-004
   34.393013978004454       -2.7080937304611630E-004
   34.581986582279207       -2.6635281805706477E-004
   34.770959186553952       -2.6199347558494753E-004
   34.959931790828705       -2.5772869838151157E-004
   35.148904395103457       -2.5355592568891266E-004
   35.337876999378203       -2.4947267993946220E-004
   35.526849603652956       -2.4547656359958996E-004
   35.715822207927701       -2.4156525615100366E-004
   35.904794812202454       -2.3773651120226376E-004
   36.093767416477206       -2.3398815372443232E-004
   36.282740020751952       -2.3031807740473976E-004
   36.471712625026704       -2.2672424211263377E-004
   36.660685229301450       -2.2320467147280638E-004
   36.849657833576202       -2.1975745054007330E-004
   37.038630437850955       -2.1638072357133977E-004
   37.227603042125700       -2.1307269189000516E-004
   37.416575646400453       -2.0983161183854197E-004
   37.605548250675199       -2.0665579281514815E-004
   37.794520854949951       -2.0354359539050896E-004
   37.983493459224704       -2.0049342950104160E-004
   38.172466063499449       -1.9750375271513211E-004
   38.361438667774202       -1.9457306856898404E-004
   38.550411272048947       -1.9169992496898079E-004
   38.739383876323700       -1.8888291265751700E-004
   38.928356480598453       -1.8612066373952120E-004
   39.117329084873198       -1.8341185026690701E-004
   39.306301689147951       -1.8075518287839778E-004
   39.495274293422696       -1.7814940949232780E-004
   39.684246897697449       -1.7559331405002311E-004
   39.873219501972201       -1.7308571530763473E-004
   40.062192106246947       -1.7062546567425026E-004
   40.251164710521699       -1.6821145009434350E-004
   40.440137314796445       -1.6584258497262958E-004
   40.629109919071198       -1.6351781713950348E-004
   40.818082523345950       -1.6123612285536692E-004
   41.007055127620696       -1.5899650685217604E-004
   41.196027731895448       -1.5679800141066034E-004
   41.385000336170194       -1.5463966547169601E-004
   41.573972940444946       -1.5252058378041698E-004
   41.762945544719699       -1.5043986606175011E-004
   41.951918148994444       -1.4839664622598664E-004
   42.140890753269197       -1.4639008160325401E-004
   42.329863357543942       -1.4441935220565365E-004
   42.518835961818695       -1.4248366001591255E-004
   42.707808566093448       -1.4058222830156338E-004
   42.896781170368193       -1.3871430095355631E-004
   43.085753774642946       -1.3687914184829891E-004
   43.274726378917691       -1.3507603423230504E-004
   43.463698983192444       -1.3330428012839490E-004
   43.652671587467196       -1.3156319976274968E-004
   43.841644191741942       -1.2985213101188625E-004
   44.030616796016695       -1.2817042886882792E-004
   44.219589400291440       -1.2651746492770084E-004
   44.408562004566193       -1.2489262688604105E-004
   44.597534608840945       -1.2329531806418300E-004
   44.786507213115691       -1.2172495694093722E-004
   44.975479817390443       -1.2018097670510108E-004
   45.164452421665189       -1.1866282482207387E-004
   45.353425025939941       -1.1716996261504302E-004
   45.542397630214694       -1.1570186486023575E-004
   45.731370234489439       -1.1425801939559821E-004
   45.920342838764192       -1.1283792674253767E-004
   46.109315443038938       -1.1144109974010340E-004
   46.298288047313690       -1.1006706319125576E-004
   46.487260651588443       -1.0871535352069433E-004
   46.676233255863188       -1.0738551844389044E-004
   46.865205860137941       -1.0607711664683594E-004
   47.054178464412686       -1.0478971747618975E-004
   47.243151068687439       -1.0352290063940251E-004
   47.432123672962192       -1.0227625591444620E-004
   47.621096277236937       -1.0104938286886144E-004
   47.810068881511690       -9.9841890587721471E-005
   47.999041485786435       -9.8653397410225840E-005
   48.188014090061188       -9.7483530674613995E-005
   48.376986694335940       -9.6331926471111658E-005
   48.565959298610686       -9.5198229402613922E-005
   48.754931902885438       -9.4082092352804222E-005
   48.943904507160184       -9.2983176261531521E-005
   49.132877111434937       -9.1901149907095024E-005
   50.077740132808685       -8.6733294072167114E-005
   51.022603154182434       -8.1942153934788645E-005
   52.156438779830935       -7.6642801115349692E-005
   53.101301801204684       -7.2566662449255915E-005
   54.046164822578433       -6.8771222141218122E-005
   55.180000448226927       -6.4553922002515246E-005
   56.124863469600676       -6.1295685115328051E-005
   56.880753886699679       -5.8843032564178044E-005
   57.069726490974425       -5.8250077334457068E-005
   58.014589512348174       -5.5400026418495848E-005
   59.148425137996675       -5.2216447671371696E-005
   60.093288159370424       -4.9744252957559084E-005
   61.038151180744165       -4.7423033871256565E-005
   62.171986806392667       -4.4820947733075925E-005
   63.116849827766416       -4.2793331177946701E-005
   64.061712849140164       -4.0883774704852692E-005
   65.006575870513913       -3.9083811117124541E-005
   66.140411496162415       -3.7057654371224824E-005
   67.085274517536163       -3.5472430440460776E-005
   68.030137538909912       -3.3974201168808035E-005
   69.163973164558413       -3.2282909640240973E-005
   70.108836185932162       -3.0956021641294245E-005
   71.053699207305911       -2.9698901644921227E-005
   72.187534832954412       -2.8276110480972158E-005
   73.132397854328161       -2.7157052665404133E-005
   74.077260875701910       -2.6094475012129465E-005
   75.022123897075659       -2.5084864109650593E-005
   76.155959522724146       -2.3938682304629944E-005
   77.100822544097895       -2.3034476460813847E-005
   78.045685565471643       -2.2173631442367150E-005
   79.179521191120145       -2.1194258623933027E-005
   80.124384212493894       -2.0420039783092796E-005
   80.313356816768646       -2.0269556085295828E-005
   80.502329421043399       -2.0120486107016968E-005
   80.691302025318151       -1.9972813337295416E-005
   80.880274629592890       -1.9826521496388437E-005
   81.069247233867642       -1.9681594532002361E-005
   81.258219838142395       -1.9538016615593743E-005
   81.447192442417148       -1.9395772138737517E-005
   81.636165046691900       -1.9254845709564843E-005
   81.825137650966639       -1.9115222149263858E-005
   82.014110255241391       -1.8976886488647361E-005
   82.203082859516144       -1.8839823964783437E-005
   82.392055463790896       -1.8704020017685252E-005
   82.581028068065649       -1.8569460287064683E-005
   82.770000672340387       -1.8436130609143327E-005
   82.958973276615140       -1.8304017013521840E-005
   83.147945880889893       -1.8173105720106254E-005
   83.336918485164645       -1.8043383136091206E-005
   83.525891089439398       -1.7914835852995133E-005
   83.714863693714136       -1.7787450643751069E-005
   83.903836297988889       -1.7661214459850722E-005
   84.092808902263641       -1.7536114428534569E-005
   84.281781506538394       -1.7412137850041680E-005
   84.470754110813147       -1.7289272194897315E-005
   84.659726715087885       -1.7167505101259311E-005
   84.848699319362638       -1.7046824372305034E-005
   85.037671923637390       -1.6927217973667066E-005
   85.226644527912143       -1.6808674030914473E-005
   85.415617132186895       -1.6691180827079157E-005
   85.604589736461634       -1.6574726800223240E-005
   85.793562340736386       -1.6459300541052903E-005
   85.982534945011139       -1.6344890790570964E-005
   86.171507549285892       -1.6231486437772293E-005
   86.360480153560644       -1.6119076517381125E-005
   86.549452757835382       -1.6007650207622100E-005
   86.738425362110135       -1.5897196828037789E-005
   86.927397966384888       -1.5787705837337640E-005
   87.116370570659640       -1.5679166831289760E-005
   87.305343174934393       -1.5571569540642780E-005
   87.494315779209131       -1.5464903829090072E-005
   87.683288383483884       -1.5359159691265433E-005
   87.872260987758636       -1.5254327250771994E-005
   88.061233592033389       -1.5150396758250354E-005
   88.250206196308142       -1.5047358589472652E-005
   88.439178800582880       -1.4945203243476294E-005
   88.628151404857633       -1.4843921340723204E-005
   88.817124009132385       -1.4743503621294586E-005
   89.006096613407138       -1.4643940943114427E-005
   89.195069217681890       -1.4545224280203947E-005
   89.384041821956629       -1.4447344720965249E-005
   89.573014426231381       -1.4350293466493632E-005
   89.761987030506134       -1.4254061828918641E-005
   89.950959634780887       -1.4158641229771986E-005
   90.139932239055639       -1.4064023198385983E-005
   90.328904843330378       -1.3970199370313431E-005
   90.517877447605130       -1.3877161485779357E-005
   90.706850051879883       -1.3784901388155103E-005
   90.895822656154635       -1.3693411022458386E-005
   91.084795260429388       -1.3602682433879309E-005
   91.273767864704126       -1.3512707766330100E-005
   91.462740468978879       -1.3423479261017592E-005
   91.651713073253632       -1.3334989255041714E-005
   91.840685677528384       -1.3247230180014901E-005
   92.029658281803137       -1.3160194560706141E-005
   92.218630886077875       -1.3073875013703694E-005
   92.407603490352628       -1.2988264246104680E-005
   92.596576094627380       -1.2903355054221080E-005
   92.785548698902133       -1.2819140322310812E-005
   92.974521303176886       -1.2735613021327450E-005
   93.163493907451624       -1.2652766207689123E-005
   94.486302137374878       -1.2091326294762250E-005
   96.376028180122375       -1.1342147090448370E-005
   98.265754222869873       -1.0649904727163622E-005
   100.72239807844161       -9.8265398235033375E-006
   102.04520630836487       -9.4157826945882634E-006
   103.93493235111237       -8.8650414622534938E-006
   105.82465839385986       -8.3533805187378548E-006
   107.71438443660736       -7.8774472836951852E-006
   109.60411047935486       -7.4342302542080920E-006
   111.49383652210236       -7.0210191667055832E-006
   113.38356256484985       -6.6353703806768324E-006
   115.27328860759735       -6.2750767258733753E-006
   117.16301465034485       -5.9381411751606905E-006
   119.05274069309235       -5.6227538049669858E-006
   120.94246673583984       -5.3272715881504132E-006
   122.83219277858734       -5.0502006331904228E-006
   124.72191882133484       -4.7901805413304758E-006
   126.61164486408234       -4.5459706017157748E-006
   128.50137090682983       -4.3164375852214510E-006
   130.39109694957733       -4.1005449319765447E-006
   132.28082299232483       -3.8973431565424604E-006
   134.17054903507233       -3.7059613192430503E-006
   136.06027507781982       -3.5255994329702210E-006
   137.95000112056732       -3.3555216925041822E-006
   139.83972716331482       -3.1950504284879518E-006
   141.72945320606232       -3.0435607010915507E-006
   143.61917924880981       -2.9004754594304546E-006
   145.50890529155731       -2.7652612022564093E-006
   147.39863133430481       -2.6374240835481880E-006
   149.28835737705231       -2.5165064136047572E-006
   151.17808341979980       -2.4020835122461111E-006
   153.06780946254730       -2.2937608759079609E-006
   154.95753550529480       -2.1911716248930343E-006
   156.84726154804230       -2.0939742009236015E-006
   158.73698759078979       -2.0018502885102479E-006
   160.62671363353729       -1.9145029365924061E-006
   162.51643967628479       -1.8316548594780070E-006
   164.40616571903229       -1.7530468983683876E-006
   166.29589176177979       -1.6784366267474303E-006
   168.18561780452728       -1.6075970846806791E-006
   170.07534384727478       -1.5403156286390582E-006
   171.96506989002228       -1.4763928848679025E-006
   173.85479593276978       -1.4156417955777891E-006
   175.74452197551727       -1.3578867483651637E-006
   177.63424801826477       -1.3029627802906186E-006
   179.52397406101227       -1.2507148489589891E-006
   181.41370010375977       -1.2009971637754699E-006
   183.30342614650726       -1.1536725712983688E-006
   185.19315218925476       -1.1086119892804507E-006
   187.08287823200226       -1.0656938845952135E-006
   188.97260427474976       -1.0248037907851916E-006
   190.86233031749725       -9.8583386145089603E-007
   192.75205636024475       -9.4868245613088513E-007
   194.64178240299225       -9.1325375570210568E-007
   196.53150844573975       -8.7945740466862618E-007
   198.42123448848724       -8.4720817800163343E-007
   200.31096053123474       -8.1642567045533132E-007
   202.20068657398224       -7.8703400651146375E-007
   204.09041261672974       -7.5896156930265958E-007
   205.98013865947723       -7.3214074704185523E-007
   207.86986470222473       -7.0650769563258485E-007
   209.75959074497223       -6.8200211627052479E-007
   211.64931678771973       -6.5856704695894594E-007
   213.53904283046722       -6.3614866696206211E-007
   215.42876887321472       -6.1469611330847341E-007
   217.31849491596222       -5.9416130853217100E-007
   219.20822095870972       -5.7449879890801333E-007
   221.09794700145721       -5.5566560249694563E-007
   222.98767304420471       -5.3762106636977416E-007
   224.87739908695221       -5.2032673242596620E-007
   226.76712512969971       -5.0374621126527130E-007
   228.65685117244720       -4.8784506360946255E-007
   230.54657721519470       -4.7259068880526107E-007
   232.43630325794220       -4.5795221997135403E-007
   234.32602930068970       -4.4390042538100802E-007
   236.21575534343719       -4.3040761569882079E-007
   238.10548138618469       -4.1744755671409546E-007
   239.99520742893219       -4.0499538723613106E-007
   241.88493347167969       -3.9302754183779695E-007
   243.77465951442719       -3.8152167815322227E-007
   245.66438555717468       -3.7045660845364753E-007
   247.55411159992218       -3.5981223524261586E-007
   249.44383764266968       -3.4956949062745419E-007
   251.33356368541718       -3.3971027923905083E-007
   253.22328972816467       -3.3021742448579063E-007
   255.11301577091217       -3.2107461794070867E-007
   257.00274181365967       -3.1226637167312527E-007
   258.89246785640717       -3.0377797334763046E-007
   260.78219389915466       -2.9559544392409337E-007
   262.67191994190216       -2.8770549780251051E-007
   264.56164598464966       -2.8009550526607277E-007
   266.45137202739716       -2.7275345708480250E-007
   268.34109807014465       -2.6566793115049937E-007
   270.23082411289215       -2.5882806102161597E-007
   272.12055015563965       -2.5222350626418108E-007
   274.01027619838715       -2.4584442448168862E-007
   275.90000224113464       -2.3968144493361134E-007
   277.78972828388214       -2.3372564364810621E-007
   279.67945432662964       -2.2796851994038937E-007
   281.56918036937714       -2.2240197425364282E-007
   283.45890641212463       -2.1701828724425114E-007
   285.34863245487213       -2.1181010003808046E-007
   287.23835849761963       -2.0677039558888462E-007
   289.12808454036713       -2.0189248107412959E-007
   291.01781058311462       -1.9716997126744114E-007
   292.90753662586212       -1.9259677283058927E-007
   294.79726266860962       -1.8816706947133109E-007
   296.68698871135712       -1.8387530791678770E-007
   298.57671475410461       -1.7971618465488702E-007
   300.46644079685211       -1.7568463339949853E-007
   302.35616683959961       -1.7177581323729580E-007
   304.24589288234711       -1.6798509741718084E-007
   306.13561892509460       -1.6430806274521819E-007
   308.02534496784210       -1.6074047955038643E-007
   309.91507101058960       -1.5727830218847415E-007
   311.80479705333710       -1.5391766005346472E-007
   313.69452309608459       -1.5065484906744611E-007
   315.58424913883209       -1.4748632362195743E-007
   317.47397518157959       -1.4440868894522065E-007
   319.36370122432709       -1.4141869387120057E-007
   321.25342726707458       -1.3851322398787881E-007
   323.14315330982208       -1.3568929514354694E-007
   325.03287935256958       -1.3294404729096962E-007
   326.92260539531708       -1.3027473865070579E-007
   328.81233143806458       -1.2767874017573085E-007
   330.70205748081207       -1.2515353030077978E-007
   332.59178352355957       -1.2269668996057794E-007
   334.48150956630707       -1.2030589786221958E-007
   336.37123560905457       -1.1797892599771523E-007
   338.26096165180206       -1.1571363538360887E-007
   340.15068769454956       -1.1350797201520736E-007
   342.04041373729706       -1.1135996302385391E-007
Scale
Step = 0.0000001
Grid  = 600
Range = 0.4 300.0
Vibrations = 200
Rotations  = 0 0
Orbital    = 0

-- ----------------------------------

--- Start Module: vibrot at Sun Oct 30 10:12:37 2022 ---

()()()()()()()()()()()()()()()()()()()()()()()()()()()()()()()()()()()()()()()()()()()()()()()()()()

                                              &VIBROT

                                   only a single process is used
                       available to each process: 2.0 GB of memory, 1 thread?
                                             pid: 60206
()()()()()()()()()()()()()()()()()()()()()()()()()()()()()()()()()()()()()()()()()()()()()()()()()()


 Vibration-Rotation spectrum for the LiLi molecule.
 Vib-Rot spectrum for Li2(c)                                                     

 Rotational quantum number range   0  0
 Electronic angular momentum       0
 Vibrational quantum number range  0199
 Mass of atom   6 Li   10964.898255 au
 Mass of atom   6 Li   10964.898255 au
 Reduced mass           5482.449127 au

 Statistics for numerical integration
 Number of steps           599
 Step length               0.011070
 Radial integration range  0.400000300.000000 au
 logarithmic range        -0.916291  5.703782

 Spectroscopic constants will not be computed
 Matrix elements of operators will not be computed

 Potential read from input
       R(au)     E(au)
     2.078699    0.712054
     2.267671    0.413860
     2.456644    0.261481
     2.645616    0.174633
     2.834589    0.120287
     3.023562    0.083460
     3.212534    0.056836
     3.401507    0.036639
     3.590479    0.020829
     3.779452    0.008245
     3.968425   -0.001821
     4.157397   -0.009844
     4.346370   -0.016179
     4.535343   -0.021109
     4.724315   -0.024872
     4.913288   -0.027670
     5.102260   -0.029674
     5.291233   -0.031030
     5.480206   -0.031856
     5.669178   -0.032253
     5.858151   -0.032303
     6.047123   -0.032074
     6.236096   -0.031623
     6.425069   -0.030996
     6.614041   -0.030233
     6.803014   -0.029366
     6.991986   -0.028422
     7.180959   -0.027423
     7.369932   -0.026388
     7.558904   -0.025332
     7.747877   -0.024268
     7.936849   -0.023206
     8.125822   -0.022154
     8.314795   -0.021120
     8.503767   -0.020108
     8.692740   -0.019124
     8.881712   -0.018171
     9.070685   -0.017251
     9.259658   -0.016366
     9.448630   -0.015518
     9.637603   -0.014707
     9.826575   -0.013933
    10.015548   -0.013197
    10.204521   -0.012498
    10.393493   -0.011835
    10.582466   -0.011208
    10.771438   -0.010615
    10.960411   -0.010056
    11.149384   -0.009529
    11.338356   -0.009032
    11.527329   -0.008564
    11.716301   -0.008124
    11.905274   -0.007710
    12.094247   -0.007322
    12.283219   -0.006957
    12.472192   -0.006613
    12.661164   -0.006291
    12.850137   -0.005988
    13.039110   -0.005703
    13.228082   -0.005436
    13.417055   -0.005184
    13.606028   -0.004948
    13.795000   -0.004725
    13.983973   -0.004515
    14.172945   -0.004318
    14.361918   -0.004132
    14.550891   -0.003956
    14.739863   -0.003791
    14.928836   -0.003634
    15.117808   -0.003487
    15.306781   -0.003347
    15.495754   -0.003215
    15.684726   -0.003089
    15.873699   -0.002971
    16.062671   -0.002858
    16.251644   -0.002752
    16.440617   -0.002650
    16.629589   -0.002554
    16.818562   -0.002463
    17.007534   -0.002375
    17.196507   -0.002293
    17.385480   -0.002214
    17.574452   -0.002138
    17.763425   -0.002067
    17.952397   -0.001998
    18.141370   -0.001933
    18.330343   -0.001870
    18.519315   -0.001810
    18.708288   -0.001753
    18.897260   -0.001698
    19.086233   -0.001646
    19.275206   -0.001596
    19.464178   -0.001548
    19.653151   -0.001501
    19.842123   -0.001457
    20.031096   -0.001415
    20.220069   -0.001374
    20.409041   -0.001334
    20.598014   -0.001297
    20.786986   -0.001260
    20.975959   -0.001225
    21.164932   -0.001192
    21.353904   -0.001159
    21.542877   -0.001128
    21.731849   -0.001098
    21.920822   -0.001069
    22.109795   -0.001041
    22.298767   -0.001014
    22.487740   -0.000988
    22.676713   -0.000963
    22.865685   -0.000939
    23.054658   -0.000915
    23.243630   -0.000892
    23.432603   -0.000871
    23.621576   -0.000849
    23.810548   -0.000829
    23.999521   -0.000809
    24.188493   -0.000790
    24.377466   -0.000771
    24.566439   -0.000753
    24.755411   -0.000736
    24.944384   -0.000719
    25.133356   -0.000702
    25.322329   -0.000686
    25.511302   -0.000671
    25.700274   -0.000656
    25.889247   -0.000642
    26.078219   -0.000628
    26.267192   -0.000614
    26.456165   -0.000601
    26.645137   -0.000588
    26.834110   -0.000575
    27.023082   -0.000563
    27.212055   -0.000551
    27.401028   -0.000540
    27.590000   -0.000529
    27.778973   -0.000518
    27.967945   -0.000507
    28.156918   -0.000497
    28.345891   -0.000487
    28.534863   -0.000477
    28.723836   -0.000468
    28.912808   -0.000458
    29.101781   -0.000449
    29.290754   -0.000441
    29.479726   -0.000432
    29.668699   -0.000424
    29.857671   -0.000416
    30.046644   -0.000408
    30.235617   -0.000400
    30.424589   -0.000393
    30.613562   -0.000385
    30.802534   -0.000378
    30.991507   -0.000371
    31.180480   -0.000365
    31.369452   -0.000358
    31.558425   -0.000351
    31.747398   -0.000345
    31.936370   -0.000339
    32.125343   -0.000333
    32.314315   -0.000327
    32.503288   -0.000321
    32.692261   -0.000316
    32.881233   -0.000310
    33.070206   -0.000305
    33.259178   -0.000300
    33.448151   -0.000295
    33.637124   -0.000290
    33.826096   -0.000285
    34.015069   -0.000280
    34.204041   -0.000275
    34.393014   -0.000271
    34.581987   -0.000266
    34.770959   -0.000262
    34.959932   -0.000258
    35.148904   -0.000254
    35.337877   -0.000249
    35.526850   -0.000245
    35.715822   -0.000242
    35.904795   -0.000238
    36.093767   -0.000234
    36.282740   -0.000230
    36.471713   -0.000227
    36.660685   -0.000223
    36.849658   -0.000220
    37.038630   -0.000216
    37.227603   -0.000213
    37.416576   -0.000210
    37.605548   -0.000207
    37.794521   -0.000204
    37.983493   -0.000200
    38.172466   -0.000198
    38.361439   -0.000195
    38.550411   -0.000192
    38.739384   -0.000189
    38.928356   -0.000186
    39.117329   -0.000183
    39.306302   -0.000181
    39.495274   -0.000178
    39.684247   -0.000176
    39.873220   -0.000173
    40.062192   -0.000171
    40.251165   -0.000168
    40.440137   -0.000166
    40.629110   -0.000164
    40.818083   -0.000161
    41.007055   -0.000159
    41.196028   -0.000157
    41.385000   -0.000155
    41.573973   -0.000153
    41.762946   -0.000150
    41.951918   -0.000148
    42.140891   -0.000146
    42.329863   -0.000144
    42.518836   -0.000142
    42.707809   -0.000141
    42.896781   -0.000139
    43.085754   -0.000137
    43.274726   -0.000135
    43.463699   -0.000133
    43.652672   -0.000132
    43.841644   -0.000130
    44.030617   -0.000128
    44.219589   -0.000127
    44.408562   -0.000125
    44.597535   -0.000123
    44.786507   -0.000122
    44.975480   -0.000120
    45.164452   -0.000119
    45.353425   -0.000117
    45.542398   -0.000116
    45.731370   -0.000114
    45.920343   -0.000113
    46.109315   -0.000111
    46.298288   -0.000110
    46.487261   -0.000109
    46.676233   -0.000107
    46.865206   -0.000106
    47.054178   -0.000105
    47.243151   -0.000104
    47.432124   -0.000102
    47.621096   -0.000101
    47.810069   -0.000100
    47.999041   -0.000099
    48.188014   -0.000097
    48.376987   -0.000096
    48.565959   -0.000095
    48.754932   -0.000094
    48.943905   -0.000093
    49.132877   -0.000092
    50.077740   -0.000087
    51.022603   -0.000082
    52.156439   -0.000077
    53.101302   -0.000073
    54.046165   -0.000069
    55.180000   -0.000065
    56.124863   -0.000061
    56.880754   -0.000059
    57.069726   -0.000058
    58.014590   -0.000055
    59.148425   -0.000052
    60.093288   -0.000050
    61.038151   -0.000047
    62.171987   -0.000045
    63.116850   -0.000043
    64.061713   -0.000041
    65.006576   -0.000039
    66.140411   -0.000037
    67.085275   -0.000035
    68.030138   -0.000034
    69.163973   -0.000032
    70.108836   -0.000031
    71.053699   -0.000030
    72.187535   -0.000028
    73.132398   -0.000027
    74.077261   -0.000026
    75.022124   -0.000025
    76.155960   -0.000024
    77.100823   -0.000023
    78.045686   -0.000022
    79.179521   -0.000021
    80.124384   -0.000020
    80.313357   -0.000020
    80.502329   -0.000020
    80.691302   -0.000020
    80.880275   -0.000020
    81.069247   -0.000020
    81.258220   -0.000020
    81.447192   -0.000019
    81.636165   -0.000019
    81.825138   -0.000019
    82.014110   -0.000019
    82.203083   -0.000019
    82.392055   -0.000019
    82.581028   -0.000019
    82.770001   -0.000018
    82.958973   -0.000018
    83.147946   -0.000018
    83.336918   -0.000018
    83.525891   -0.000018
    83.714864   -0.000018
    83.903836   -0.000018
    84.092809   -0.000018
    84.281782   -0.000017
    84.470754   -0.000017
    84.659727   -0.000017
    84.848699   -0.000017
    85.037672   -0.000017
    85.226645   -0.000017
    85.415617   -0.000017
    85.604590   -0.000017
    85.793562   -0.000016
    85.982535   -0.000016
    86.171508   -0.000016
    86.360480   -0.000016
    86.549453   -0.000016
    86.738425   -0.000016
    86.927398   -0.000016
    87.116371   -0.000016
    87.305343   -0.000016
    87.494316   -0.000015
    87.683288   -0.000015
    87.872261   -0.000015
    88.061234   -0.000015
    88.250206   -0.000015
    88.439179   -0.000015
    88.628151   -0.000015
    88.817124   -0.000015
    89.006097   -0.000015
    89.195069   -0.000015
    89.384042   -0.000014
    89.573014   -0.000014
    89.761987   -0.000014
    89.950960   -0.000014
    90.139932   -0.000014
    90.328905   -0.000014
    90.517877   -0.000014
    90.706850   -0.000014
    90.895823   -0.000014
    91.084795   -0.000014
    91.273768   -0.000014
    91.462740   -0.000013
    91.651713   -0.000013
    91.840686   -0.000013
    92.029658   -0.000013
    92.218631   -0.000013
    92.407603   -0.000013
    92.596576   -0.000013
    92.785549   -0.000013
    92.974521   -0.000013
    93.163494   -0.000013
    94.486302   -0.000012
    96.376028   -0.000011
    98.265754   -0.000011
   100.722398   -0.000010
   102.045206   -0.000009
   103.934932   -0.000009
   105.824658   -0.000008
   107.714384   -0.000008
   109.604110   -0.000007
   111.493837   -0.000007
   113.383563   -0.000007
   115.273289   -0.000006
   117.163015   -0.000006
   119.052741   -0.000006
   120.942467   -0.000005
   122.832193   -0.000005
   124.721919   -0.000005
   126.611645   -0.000005
   128.501371   -0.000004
   130.391097   -0.000004
   132.280823   -0.000004
   134.170549   -0.000004
   136.060275   -0.000004
   137.950001   -0.000003
   139.839727   -0.000003
   141.729453   -0.000003
   143.619179   -0.000003
   145.508905   -0.000003
   147.398631   -0.000003
   149.288357   -0.000003
   151.178083   -0.000002
   153.067809   -0.000002
   154.957536   -0.000002
   156.847262   -0.000002
   158.736988   -0.000002
   160.626714   -0.000002
   162.516440   -0.000002
   164.406166   -0.000002
   166.295892   -0.000002
   168.185618   -0.000002
   170.075344   -0.000002
   171.965070   -0.000001
   173.854796   -0.000001
   175.744522   -0.000001
   177.634248   -0.000001
   179.523974   -0.000001
   181.413700   -0.000001
   183.303426   -0.000001
   185.193152   -0.000001
   187.082878   -0.000001
   188.972604   -0.000001
   190.862330   -0.000001
   192.752056   -0.000001
   194.641782   -0.000001
   196.531508   -0.000001
   198.421234   -0.000001
   200.310961   -0.000001
   202.200687   -0.000001
   204.090413   -0.000001
   205.980139   -0.000001
   207.869865   -0.000001
   209.759591   -0.000001
   211.649317   -0.000001
   213.539043   -0.000001
   215.428769   -0.000001
   217.318495   -0.000001
   219.208221   -0.000001
   221.097947   -0.000001
   222.987673   -0.000001
   224.877399   -0.000001
   226.767125   -0.000001
   228.656851   -0.000000
   230.546577   -0.000000
   232.436303   -0.000000
   234.326029   -0.000000
   236.215755   -0.000000
   238.105481   -0.000000
   239.995207   -0.000000
   241.884933   -0.000000
   243.774660   -0.000000
   245.664386   -0.000000
   247.554112   -0.000000
   249.443838   -0.000000
   251.333564   -0.000000
   253.223290   -0.000000
   255.113016   -0.000000
   257.002742   -0.000000
   258.892468   -0.000000
   260.782194   -0.000000
   262.671920   -0.000000
   264.561646   -0.000000
   266.451372   -0.000000
   268.341098   -0.000000
   270.230824   -0.000000
   272.120550   -0.000000
   274.010276   -0.000000
   275.900002   -0.000000
   277.789728   -0.000000
   279.679454   -0.000000
   281.569180   -0.000000
   283.458906   -0.000000
   285.348632   -0.000000
   287.238358   -0.000000
   289.128085   -0.000000
   291.017811   -0.000000
   292.907537   -0.000000
   294.797263   -0.000000
   296.686989   -0.000000
   298.576715   -0.000000
   300.466441   -0.000000
   302.356167   -0.000000
   304.245893   -0.000000
   306.135619   -0.000000
   308.025345   -0.000000
   309.915071   -0.000000
   311.804797   -0.000000
   313.694523   -0.000000
   315.584249   -0.000000
   317.473975   -0.000000
   319.363701   -0.000000
   321.253427   -0.000000
   323.143153   -0.000000
   325.032879   -0.000000
   326.922605   -0.000000
   328.812331   -0.000000
   330.702057   -0.000000
   332.591784   -0.000000
   334.481510   -0.000000
   336.371236   -0.000000
   338.260962   -0.000000
   340.150688   -0.000000
   342.040414   -0.000000
 Generating plot file:VIBPLT0 

 Scaling parameter for potential:    3.095712

 extremum points
                        R(au)         Value
 Min point         5.792821     -0.032320
 Extrapolated value at infinity    -0.000000


 Eigenstates

  Vib. q.n.   Rot. q.n.    Energy
      0           0      0.000616
      1           0      0.001829
      2           0      0.003017
      3           0      0.004179
      4           0      0.005317
      5           0      0.006430
      6           0      0.007518
      7           0      0.008581
      8           0      0.009619
      9           0      0.010633
     10           0      0.011622
     11           0      0.012586
     12           0      0.013525
     13           0      0.014440
     14           0      0.015329
     15           0      0.016194
     16           0      0.017034
     17           0      0.017849
     18           0      0.018638
     19           0      0.019403
     20           0      0.020143
     21           0      0.020857
     22           0      0.021546
     23           0      0.022209
     24           0      0.022848
     25           0      0.023461
     26           0      0.024048
     27           0      0.024610
     28           0      0.025147
     29           0      0.025659
     30           0      0.026146
     31           0      0.026609
     32           0      0.027046
     33           0      0.027460
     34           0      0.027850
     35           0      0.028216
     36           0      0.028560
     37           0      0.028882
     38           0      0.029183
     39           0      0.029462
     40           0      0.029722
     41           0      0.029963
     42           0      0.030186
     43           0      0.030391
     44           0      0.030580
     45           0      0.030754
     46           0      0.030913
     47           0      0.031058
     48           0      0.031191
     49           0      0.031312
     50           0      0.031423
     51           0      0.031522
     52           0      0.031613
     53           0      0.031695
     54           0      0.031768
     55           0      0.031835
     56           0      0.031894
     57           0      0.031948
     58           0      0.031995
     59           0      0.032038
     60           0      0.032076
     61           0      0.032109
     62           0      0.032139
     63           0      0.032165
     64           0      0.032188
     65           0      0.032208
     66           0      0.032225
     67           0      0.032240
     68           0      0.032253
     69           0      0.032265
     70           0      0.032274
     71           0      0.032283
     72           0      0.032290
     73           0      0.032296
     74           0      0.032300
     75           0      0.032305
     76           0      0.032308
     77           0      0.032311
     78           0      0.032313
     79           0      0.032315
     80           0      0.032316
     81           0      0.032318
     82           0      0.032319
     83           0      0.032319
     84           0      0.032320     Warning:function value at Rmax is    0.001596
     85           0      0.032320     Warning:function value at Rmax is    0.053458
     86           0      0.032320     Warning:function value at Rmax is    0.484359
 ###############################################################################
 ###############################################################################
 ###                                                                         ###
 ###                                                                         ###
 ###    Location: VibRot                                                     ###
 ###                                                                         ###
 ###                                                                         ###
 ###    Failed to find a state.Try decreasing STEP.                          ###
 ###                                                                         ###
 ###                                                                         ###
 ###############################################################################
 ###############################################################################
--- Stop Module: vibrot at Sun Oct 30 10:12:42 2022 /rc=_RC_NOT_CONVERGED_ ---
*** files: li22.VibWvs xmldump
    saved to directory /Users/arpitarunkumaar/Desktop/untitled folder
--- Module vibrot spent 5 seconds ---

.#######################.
.# Convergence problem #.
.#######################.

    Timing: Wall=5.28 User=5.22 System=0.04
